#define charge -10
#define vsa 0.12

[ defaults ]
; nbfunc  comb-rule  gen-pairs  fudgeLJ  fudgeQQ
       1          2        yes      1.0      0.5

[ atomtypes ]
;  name  at.num     mass  charge  ptype           sigma   epsilon
  HAL1c       1    1.008    0.09      A  0.235197261589  0.092048
  HAL2c       1    1.008    0.09      A  0.238760856462  0.117152
    HLc       1    1.008    0.25      A   0.12472582054  0.192464
    CLc       6   12.011     0.9      A  0.356359487256   0.29288
  CTL1c       6   12.011    0.17      A  0.405358916754   0.08368
  CTL2c       6   12.011    -0.1      A  0.358141284692  0.234304
  CTL5c       6   12.011   -0.35      A  0.367050271874   0.33472
   NTLc       7   14.007    -0.6      A  0.329632525712    0.8368
   O2Lc       8  15.9994   -0.78      A  0.302905564168   0.50208
   OBLc       8  15.9994   -0.63      A  0.302905564168   0.50208
   OSLc       8  15.9994   -0.49      A  0.293996576986    0.4184
  OSLPc       8  15.9994   -0.57      A  0.293996576986    0.4184
    PLc      15   30.974     1.5      A    0.3830864488   2.44764
  HEL1s       1    1.008    0.15      A             0.2       0.1
  CTL3s       6  12.0111  -0.081      A            0.35      0.34
  CTL2s       6  12.0011    0.05      A           0.358     0.228
  HAL3s       1    1.008    0.09      A            0.22     0.095
  HAL2s       1    1.008    0.09      A            0.24     0.112
  CEL1s       6   12.011   -0.15      A            0.35      0.22
    OW4       8  15.9994     0.0      A        0.315545  0.764029
    HW4       1   1.0079     0.0      A             0.0       0.0
     IW       0      0.0     0.0      D             0.0       0.0

[ nonbond_params ]
; type1  type2  func  sigma  epsilon
  CTL2s  CTL2s     1  0.358    0.228
  HAL2s  CTL2c     1  0.358    0.228

[ moleculetype ]
; name  nrexcl
  POPC       3

[ atoms ]
;  nr   type  resnr  residue  atom  cgnr                charge     mass
    1   NTLc      1     POPC     N     1   -0.5485436537136159   14.007
    2  CTL2c      1     POPC   C12     2                  -0.1   12.011
    3    HLc      1     POPC  H12A     3                 0.215    1.008
    4    HLc      1     POPC  H12B     4                 0.215    1.008
    5  CTL5c      1     POPC   C13     5   0.09103136237874962   12.011
    6    HLc      1     POPC  H13A     6                charge    1.008
    7    HLc      1     POPC  H13B     7               -charge    1.008
    8    HLc      1     POPC  H13C     8   0.04282772961970744    1.008
    9  CTL5c      1     POPC   C14     9   0.09103136237874962   12.011
   10    HLc      1     POPC  H14A    10   0.08282772961970744    1.008
   11    HLc      1     POPC  H14B    11   0.08282772961970744    1.008
   12    HLc      1     POPC  H14C    12   0.08282772961970744    1.008
   13  CTL5c      1     POPC   C15    13   0.09103136237874962   12.011
   14    HLc      1     POPC  H15A    14   0.08282772961970744    1.008
   15    HLc      1     POPC  H15B    15   0.08282772961970744    1.008
   16    HLc      1     POPC  H15C    16   0.08282772961970744    1.008
   17  CTL2c      1     POPC   C11    17                 -0.08   12.011
   18  HAL2c      1     POPC  H11A    18                  0.09    1.008
   19  HAL2c      1     POPC  H11B    19                  0.09    1.008
   20    PLc      1     POPC     P    20   0.34521175370994045   30.974
   21   O2Lc      1     POPC   O13    21   -0.4340372020019011  15.9994
   22   O2Lc      1     POPC   O14    22   -0.4940372020019011  15.9994
   23  OSLPc      1     POPC   O12    23  -0.20856867485306918  15.9994
   24  OSLPc      1     POPC   O11    24  -0.20856867485306918  15.9994
   25  CTL2c      1     POPC    C1    25                 -0.08   12.011
   26  HAL2c      1     POPC    HA    26                  0.09    1.008
   27  HAL2c      1     POPC    HB    27                  0.09    1.008
   28  CTL1c      1     POPC    C2    28                  0.17   12.011
   29  HAL1c      1     POPC    HS    29                  0.09    1.008
   30   OSLc      1     POPC   O21    30    -0.381690873981899  15.9994
   31    CLc      1     POPC   C21    31    0.7377812032190209   12.011
   32   OBLc      1     POPC   O22    32   -0.5760903292371219  15.9994
   33  CTL2s      1     POPC   C22    33              -0.08666   12.011
   34  HAL2s      1     POPC   H2R    34               0.02333    1.008
   35  HAL2s      1     POPC   H2S    35               0.02333    1.008
   36  CTL2c      1     POPC    C3    36                  0.08   12.011
   37  HAL2c      1     POPC    HX    37                  0.09    1.008
   38  HAL2c      1     POPC    HY    38                  0.09    1.008
   39   OSLc      1     POPC   O31    39    -0.381690873981899  15.9994
   40    CLc      1     POPC   C31    40    0.7377812032190209   12.011
   41   OBLc      1     POPC   O32    41   -0.5760903292371219  15.9994
   42  CTL2s      1     POPC   C32    42              -0.08666   12.011
   43  HAL2s      1     POPC   H2X    43               0.02333    1.008
   44  HAL2s      1     POPC   H2Y    44               0.02333    1.008
   45  CTL2s      1     POPC   C23    45                   0.0   12.011
   46  HAL2s      1     POPC   H3R    46                   0.0    1.008
   47  HAL2s      1     POPC   H3S    47                   0.0    1.008
   48  CTL2s      1     POPC   C24    48                   0.0   12.011
   49  HAL2s      1     POPC   H4R    49                   0.0    1.008
   50  HAL2s      1     POPC   H4S    50                   0.0    1.008
   51  CTL2s      1     POPC   C25    51                   0.0   12.011
   52  HAL2s      1     POPC   H5R    52                   0.0    1.008
   53  HAL2s      1     POPC   H5S    53                   0.0    1.008
   54  CTL2s      1     POPC   C26    54                   0.0   12.011
   55  HAL2s      1     POPC   H6R    55                   0.0    1.008
   56  HAL2s      1     POPC   H6S    56                   0.0    1.008
   57  CTL2s      1     POPC   C27    57                   0.0   12.011
   58  HAL2s      1     POPC   H7R    58                   0.0    1.008
   59  HAL2s      1     POPC   H7S    59                   0.0    1.008
   60  CTL2s      1     POPC   C28    60                  0.03   12.011
   61  HAL2s      1     POPC   H8R    61                  0.03    1.008
   62  HAL2s      1     POPC   H8S    62                  0.03    1.008
   63  CEL1s      1     POPC   C29    63                  -0.2   12.011
   64  HEL1s      1     POPC   H91    64                  0.11    1.008
   65  CEL1s      1     POPC  C210    65                  -0.2   12.011
   66  HEL1s      1     POPC  H101    66                  0.11    1.008
   67  CTL2s      1     POPC  C211    67                  0.03   12.011
   68  HAL2s      1     POPC  H11R    68                  0.03    1.008
   69  HAL2s      1     POPC  H11S    69                  0.03    1.008
   70  CTL2s      1     POPC  C212    70                   0.0   12.011
   71  HAL2s      1     POPC  H12R    71                   0.0    1.008
   72  HAL2s      1     POPC  H12S    72                   0.0    1.008
   73  CTL2s      1     POPC  C213    73                   0.0   12.011
   74  HAL2s      1     POPC  H13R    74                   0.0    1.008
   75  HAL2s      1     POPC  H13S    75                   0.0    1.008
   76  CTL2s      1     POPC  C214    76                   0.0   12.011
   77  HAL2s      1     POPC  H14R    77                   0.0    1.008
   78  HAL2s      1     POPC  H14S    78                   0.0    1.008
   79  CTL2s      1     POPC  C215    79                   0.0   12.011
   80  HAL2s      1     POPC  H15R    80                   0.0    1.008
   81  HAL2s      1     POPC  H15S    81                   0.0    1.008
   82  CTL2s      1     POPC  C216    82                   0.0   12.011
   83  HAL2s      1     POPC  H16R    83                   0.0    1.008
   84  HAL2s      1     POPC  H16S    84                   0.0    1.008
   85  CTL2s      1     POPC  C217    85                 0.047   12.011
   86  HAL2s      1     POPC  H17R    86                -0.007    1.008
   87  HAL2s      1     POPC  H17S    87                -0.007    1.008
   88  CTL3s      1     POPC  C218    88                -0.081   12.011
   89  HAL3s      1     POPC  H18R    89                 0.016    1.008
   90  HAL3s      1     POPC  H18S    90                 0.016    1.008
   91  HAL3s      1     POPC  H18T    91                 0.016    1.008
   92  CTL2s      1     POPC   C33    92                   0.0   12.011
   93  HAL2s      1     POPC   H3X    93                   0.0    1.008
   94  HAL2s      1     POPC   H3Y    94                   0.0    1.008
   95  CTL2s      1     POPC   C34    95                   0.0   12.011
   96  HAL2s      1     POPC   H4X    96                   0.0    1.008
   97  HAL2s      1     POPC   H4Y    97                   0.0    1.008
   98  CTL2s      1     POPC   C35    98                   0.0   12.011
   99  HAL2s      1     POPC   H5X    99                   0.0    1.008
  100  HAL2s      1     POPC   H5Y   100                   0.0    1.008
  101  CTL2s      1     POPC   C36   101                   0.0   12.011
  102  HAL2s      1     POPC   H6X   102                   0.0    1.008
  103  HAL2s      1     POPC   H6Y   103                   0.0    1.008
  104  CTL2s      1     POPC   C37   104                   0.0   12.011
  105  HAL2s      1     POPC   H7X   105                   0.0    1.008
  106  HAL2s      1     POPC   H7Y   106                   0.0    1.008
  107  CTL2s      1     POPC   C38   107                   0.0   12.011
  108  HAL2s      1     POPC   H8X   108                   0.0    1.008
  109  HAL2s      1     POPC   H8Y   109                   0.0    1.008
  110  CTL2s      1     POPC   C39   110                   0.0   12.011
  111  HAL2s      1     POPC   H9X   111                   0.0    1.008
  112  HAL2s      1     POPC   H9Y   112                   0.0    1.008
  113  CTL2s      1     POPC  C310   113                   0.0   12.011
  114  HAL2s      1     POPC  H10X   114                   0.0    1.008
  115  HAL2s      1     POPC  H10Y   115                   0.0    1.008
  116  CTL2s      1     POPC  C311   116                   0.0   12.011
  117  HAL2s      1     POPC  H11X   117                   0.0    1.008
  118  HAL2s      1     POPC  H11Y   118                   0.0    1.008
  119  CTL2s      1     POPC  C312   119                   0.0   12.011
  120  HAL2s      1     POPC  H12X   120                   0.0    1.008
  121  HAL2s      1     POPC  H12Y   121                   0.0    1.008
  122  CTL2s      1     POPC  C313   122                   0.0   12.011
  123  HAL2s      1     POPC  H13X   123                   0.0    1.008
  124  HAL2s      1     POPC  H13Y   124                   0.0    1.008
  125  CTL2s      1     POPC  C314   125                   0.0   12.011
  126  HAL2s      1     POPC  H14X   126                   0.0    1.008
  127  HAL2s      1     POPC  H14Y   127                   0.0    1.008
  128  CTL2s      1     POPC  C315   128                 0.047   12.011
  129  HAL2s      1     POPC  H15X   129                -0.007    1.008
  130  HAL2s      1     POPC  H15Y   130                -0.007    1.008
  131  CTL3s      1     POPC  C316   131                -0.081   12.011
  132  HAL3s      1     POPC  H16X   132                 0.016    1.008
  133  HAL3s      1     POPC  H16Y   133                 0.016    1.008
  134  HAL3s      1     POPC  H16Z   134                 0.016    1.008

[ bonds ]
;  ai   aj  func      b0        kb
    1    2     1   0.151  179912.0
    1    5     1   0.151  179912.0
    1    9     1   0.151  179912.0
    1   13     1   0.151  179912.0
    2    3     1   0.108  251040.0
    2    4     1   0.108  251040.0
    2   17     1   0.153  186188.0
    5    6     1   0.108  251040.0
    5    7     1   0.108  251040.0
    5    8     1   0.108  251040.0
    9   10     1   0.108  251040.0
    9   11     1   0.108  251040.0
    9   12     1   0.108  251040.0
   13   14     1   0.108  251040.0
   13   15     1   0.108  251040.0
   13   16     1   0.108  251040.0
   17   18     1  0.1111  258571.2
   17   19     1  0.1111  258571.2
   17   23     1   0.143  284512.0
   20   21     1   0.148  485344.0
   20   22     1   0.148  485344.0
   20   23     1    0.16  225936.0
   20   24     1    0.16  225936.0
   24   25     1   0.143  284512.0
   25   26     1  0.1111  258571.2
   25   27     1  0.1111  258571.2
   25   28     1  0.1538  186188.0
   28   29     1  0.1111  258571.2
   28   30     1   0.143  284512.0
   28   36     1  0.1538  186188.0
   30   31     1  0.1334  125520.0
   31   32     1   0.122  627600.0
   31   33     1  0.1522  167360.0
   33   34     1  0.1111  258571.2
   33   35     1  0.1111  258571.2
   33   45     1   0.153  186188.0
   36   37     1  0.1111  258571.2
   36   38     1  0.1111  258571.2
   36   39     1   0.143  284512.0
   39   40     1  0.1334  125520.0
   40   41     1   0.122  627600.0
   40   42     1  0.1522  167360.0
   42   43     1  0.1111  258571.2
   42   44     1  0.1111  258571.2
   42   92     1   0.153  186188.0
   45   46     1  0.1111  258571.2
   45   47     1  0.1111  258571.2
   45   48     1   0.153  186188.0
   48   49     1  0.1111  258571.2
   48   50     1  0.1111  258571.2
   48   51     1   0.153  186188.0
   51   52     1  0.1111  258571.2
   51   53     1  0.1111  258571.2
   51   54     1   0.153  186188.0
   54   55     1  0.1111  258571.2
   54   56     1  0.1111  258571.2
   54   57     1   0.153  186188.0
   57   58     1  0.1111  258571.2
   57   59     1  0.1111  258571.2
   57   60     1   0.153  186188.0
   60   61     1  0.1111  258571.2
   60   62     1  0.1111  258571.2
   60   63     1  0.1502  305432.0
   63   64     1    0.11  301666.4
   63   65     1   0.134  368192.0
   65   66     1    0.11  301666.4
   65   67     1  0.1502  305432.0
   67   68     1  0.1111  258571.2
   67   69     1  0.1111  258571.2
   67   70     1   0.153  186188.0
   70   71     1  0.1111  258571.2
   70   72     1  0.1111  258571.2
   70   73     1   0.153  186188.0
   73   74     1  0.1111  258571.2
   73   75     1  0.1111  258571.2
   73   76     1   0.153  186188.0
   76   77     1  0.1111  258571.2
   76   78     1  0.1111  258571.2
   76   79     1   0.153  186188.0
   79   80     1  0.1111  258571.2
   79   81     1  0.1111  258571.2
   79   82     1   0.153  186188.0
   82   83     1  0.1111  258571.2
   82   84     1  0.1111  258571.2
   82   85     1   0.153  186188.0
   85   86     1  0.1111  258571.2
   85   87     1  0.1111  258571.2
   85   88     1  0.1528  186188.0
   88   89     1  0.1111  269449.6
   88   90     1  0.1111  269449.6
   88   91     1  0.1111  269449.6
   92   93     1  0.1111  258571.2
   92   94     1  0.1111  258571.2
   92   95     1   0.153  186188.0
   95   96     1  0.1111  258571.2
   95   97     1  0.1111  258571.2
   95   98     1   0.153  186188.0
   98   99     1  0.1111  258571.2
   98  100     1  0.1111  258571.2
   98  101     1   0.153  186188.0
  101  102     1  0.1111  258571.2
  101  103     1  0.1111  258571.2
  101  104     1   0.153  186188.0
  104  105     1  0.1111  258571.2
  104  106     1  0.1111  258571.2
  104  107     1   0.153  186188.0
  107  108     1  0.1111  258571.2
  107  109     1  0.1111  258571.2
  107  110     1   0.153  186188.0
  110  111     1  0.1111  258571.2
  110  112     1  0.1111  258571.2
  110  113     1   0.153  186188.0
  113  114     1  0.1111  258571.2
  113  115     1  0.1111  258571.2
  113  116     1   0.153  186188.0
  116  117     1  0.1111  258571.2
  116  118     1  0.1111  258571.2
  116  119     1   0.153  186188.0
  119  120     1  0.1111  258571.2
  119  121     1  0.1111  258571.2
  119  122     1   0.153  186188.0
  122  123     1  0.1111  258571.2
  122  124     1  0.1111  258571.2
  122  125     1   0.153  186188.0
  125  126     1  0.1111  258571.2
  125  127     1  0.1111  258571.2
  125  128     1   0.153  186188.0
  128  129     1  0.1111  258571.2
  128  130     1  0.1111  258571.2
  128  131     1  0.1528  186188.0
  131  132     1  0.1111  269449.6
  131  133     1  0.1111  269449.6
  131  134     1  0.1111  269449.6

[ pairs ]
;  ai   aj  func  fudgeQQ     qi      qj        sigma      epsilon
    1   18     2      1.0   -0.6    0.09  0.284196691   0.31310189
    1   19     2      1.0   -0.6    0.09  0.284196691   0.31310189
    1   23     2      1.0   -0.6   -0.57  0.311814551  0.591706954
    2    6     2      1.0   0.25    -0.1  0.231633667  0.089736803
    2    7     2      1.0   0.25    -0.1  0.231633667  0.089736803
    2    8     2      1.0   0.25    -0.1  0.231633667  0.089736803
    2   10     2      1.0   0.25    -0.1  0.231633667  0.089736803
    2   11     2      1.0   0.25    -0.1  0.231633667  0.089736803
    2   12     2      1.0   0.25    -0.1  0.231633667  0.089736803
    2   14     2      1.0   0.25    -0.1  0.231633667  0.089736803
    2   15     2      1.0   0.25    -0.1  0.231633667  0.089736803
    2   16     2      1.0   0.25    -0.1  0.231633667  0.089736803
    2   20     2      1.0   -0.1     1.5  0.360813981  0.320014465
    3    5     2      1.0   0.25   -0.35  0.231633667  0.089736803
    3    9     2      1.0   0.25   -0.35  0.231633667  0.089736803
    3   13     2      1.0   0.25   -0.35  0.231633667  0.089736803
    3   18     2      1.0   0.25    0.09  0.181743339  0.150158391
    3   19     2      1.0   0.25    0.09  0.181743339  0.150158391
    3   23     2      1.0   0.25   -0.57  0.209361199  0.283772686
    4    5     2      1.0   0.25   -0.35  0.231633667  0.089736803
    4    9     2      1.0   0.25   -0.35  0.231633667  0.089736803
    4   13     2      1.0   0.25   -0.35  0.231633667  0.089736803
    4   18     2      1.0   0.25    0.09  0.181743339  0.150158391
    4   19     2      1.0   0.25    0.09  0.181743339  0.150158391
    4   23     2      1.0   0.25   -0.57  0.209361199  0.283772686
    5   10     2      1.0   0.25   -0.35  0.231633667  0.089736803
    5   11     2      1.0   0.25   -0.35  0.231633667  0.089736803
    5   12     2      1.0   0.25   -0.35  0.231633667  0.089736803
    5   14     2      1.0   0.25   -0.35  0.231633667  0.089736803
    5   15     2      1.0   0.25   -0.35  0.231633667  0.089736803
    5   16     2      1.0   0.25   -0.35  0.231633667  0.089736803
    5   17     2      1.0   -0.1   -0.35  0.338541513      0.04184
    6    9     2      1.0   0.25   -0.35  0.231633667  0.089736803
    6   13     2      1.0   0.25   -0.35  0.231633667  0.089736803
    7    9     2      1.0   0.25   -0.35  0.231633667  0.089736803
    7   13     2      1.0   0.25   -0.35  0.231633667  0.089736803
    8    9     2      1.0   0.25   -0.35  0.231633667  0.089736803
    8   13     2      1.0   0.25   -0.35  0.231633667  0.089736803
    9   14     2      1.0   0.25   -0.35  0.231633667  0.089736803
    9   15     2      1.0   0.25   -0.35  0.231633667  0.089736803
    9   16     2      1.0   0.25   -0.35  0.231633667  0.089736803
    9   17     2      1.0   -0.1   -0.35  0.338541513      0.04184
   10   13     2      1.0   0.25   -0.35  0.231633667  0.089736803
   11   13     2      1.0   0.25   -0.35  0.231633667  0.089736803
   12   13     2      1.0   0.25   -0.35  0.231633667  0.089736803
   13   17     2      1.0   -0.1   -0.35  0.338541513      0.04184
   17   21     2      1.0   -0.1   -0.78  0.320723539  0.144938012
   17   22     2      1.0   -0.1   -0.78  0.320723539  0.144938012
   17   24     2      1.0   -0.1   -0.57  0.316269045  0.132309697
   18   20     2      1.0   0.09     1.5  0.310923653  0.535486621
   19   20     2      1.0   0.09     1.5  0.310923653  0.535486621
   20   26     2      1.0    1.5    0.09  0.310923653  0.535486621
   20   27     2      1.0    1.5    0.09  0.310923653  0.535486621
   20   28     2      1.0   0.17     1.5  0.360813981  0.320014465
   21   25     2      1.0   -0.1   -0.78  0.320723539  0.144938012
   22   25     2      1.0   -0.1   -0.78  0.320723539  0.144938012
   23   25     2      1.0   -0.1   -0.57  0.316269045  0.132309697
   24   29     2      1.0  -0.57    0.09  0.264596919  0.196246995
   24   30     2      1.0  -0.57   -0.49  0.293996577       0.4184
   24   36     2      1.0   -0.1   -0.57  0.316269045  0.132309697
   25   31     2      1.0    0.9    -0.1    0.3474505  0.110698235
   25   37     2      1.0   0.09    -0.1  0.288651185  0.070011711
   25   38     2      1.0   0.09    -0.1  0.288651185  0.070011711
   25   39     2      1.0   -0.1   -0.49  0.316269045  0.132309697
   26   29     2      1.0   0.09    0.09  0.236979059  0.103844149
   26   30     2      1.0   0.09   -0.49  0.266378717   0.22139647
   26   36     2      1.0   0.09    -0.1  0.288651185  0.070011711
   27   29     2      1.0   0.09    0.09  0.236979059  0.103844149
   27   30     2      1.0   0.09   -0.49  0.266378717   0.22139647
   27   36     2      1.0   0.09    -0.1  0.288651185  0.070011711
   28   32     2      1.0   0.17   -0.63  0.293996577  0.144938012
   28   33     2      1.0   0.17    0.05  0.338541513      0.04184
   28   40     2      1.0    0.9    0.17    0.3474505  0.110698235
   29   31     2      1.0   0.09     0.9  0.295778374  0.164192016
   29   37     2      1.0   0.09    0.09  0.236979059  0.103844149
   29   38     2      1.0   0.09    0.09  0.236979059  0.103844149
   29   39     2      1.0   0.09   -0.49  0.264596919  0.196246995
   30   34     2      1.0  -0.49    0.09  0.266998288  0.216473555
   30   35     2      1.0  -0.49    0.09  0.266998288  0.216473555
   30   37     2      1.0  -0.49    0.09  0.266378717   0.22139647
   30   38     2      1.0  -0.49    0.09  0.266378717   0.22139647
   30   39     2      1.0  -0.49   -0.49  0.293996577       0.4184
   30   45     2      1.0   0.05   -0.49  0.316269045  0.132309697
   31   36     2      1.0    0.9    -0.1    0.3474505  0.110698235
   31   46     2      1.0    0.9    0.09  0.298179744   0.18111477
   31   47     2      1.0    0.9    0.09  0.298179744   0.18111477
   31   48     2      1.0    0.9    0.05    0.3474505  0.110698235
   32   34     2      1.0   0.09   -0.63  0.244106249  0.242527681
   32   35     2      1.0   0.09   -0.63  0.244106249  0.242527681
   32   45     2      1.0  -0.63    0.05  0.330452782   0.33834042
   33   49     2   0.8333   0.09    0.05  0.268651185  0.020011711
   33   50     2   0.8333   0.09    0.05  0.268651185  0.020011711
   33   51     2   0.8333   0.05    0.05        0.321      0.08184
   34   46     2   0.8333   0.09    0.09         0.24  0.079195959
   34   47     2   0.8333   0.09    0.09         0.24  0.079195959
   34   48     2   0.8333   0.09    0.05  0.268651185  0.020011711
   35   46     2   0.8333   0.09    0.09         0.24  0.079195959
   35   47     2   0.8333   0.09    0.09         0.24  0.079195959
   35   48     2   0.8333   0.09    0.05  0.268651185  0.020011711
   36   41     2      1.0   -0.1   -0.63  0.293996577  0.144938012
   36   42     2      1.0   0.05    -0.1  0.338541513      0.04184
   37   40     2      1.0   0.09     0.9  0.297560172  0.185233576
   38   40     2      1.0   0.09     0.9  0.297560172  0.185233576
   39   43     2      1.0  -0.49    0.09  0.266998288  0.216473555
   39   44     2      1.0  -0.49    0.09  0.266998288  0.216473555
   39   92     2      1.0   0.05   -0.49  0.316269045  0.132309697
   40   93     2      1.0    0.9    0.09  0.298179744   0.18111477
   40   94     2      1.0    0.9    0.09  0.298179744   0.18111477
   40   95     2      1.0    0.9    0.05    0.3474505  0.110698235
   41   43     2      1.0   0.09   -0.63  0.244106249  0.242527681
   41   44     2      1.0   0.09   -0.63  0.244106249  0.242527681
   41   92     2      1.0  -0.63    0.05  0.330452782   0.33834042
   42   96     2   0.8333   0.09    0.05  0.268651185  0.020011711
   42   97     2   0.8333   0.09    0.05  0.268651185  0.020011711
   42   98     2   0.8333   0.05    0.05        0.321      0.08184
   43   93     2   0.8333   0.09    0.09         0.24  0.079195959
   43   94     2   0.8333   0.09    0.09         0.24  0.079195959
   43   95     2   0.8333   0.09    0.05  0.268651185  0.020011711
   44   93     2   0.8333   0.09    0.09         0.24  0.079195959
   44   94     2   0.8333   0.09    0.09         0.24  0.079195959
   44   95     2   0.8333   0.09    0.05  0.268651185  0.020011711
   45   52     2   0.8333   0.09    0.05  0.268651185  0.020011711
   45   53     2   0.8333   0.09    0.05  0.268651185  0.020011711
   45   54     2   0.8333   0.05    0.05        0.321      0.08184
   46   49     2   0.8333   0.09    0.09         0.24  0.079195959
   46   50     2   0.8333   0.09    0.09         0.24  0.079195959
   46   51     2   0.8333   0.09    0.05  0.268651185  0.020011711
   47   49     2   0.8333   0.09    0.09         0.24  0.079195959
   47   50     2   0.8333   0.09    0.09         0.24  0.079195959
   47   51     2   0.8333   0.09    0.05  0.268651185  0.020011711
   48   55     2   0.8333   0.09    0.05  0.268651185  0.020011711
   48   56     2   0.8333   0.09    0.05  0.268651185  0.020011711
   48   57     2   0.8333   0.05    0.05        0.321      0.08184
   49   52     2   0.8333   0.09    0.09         0.24  0.079195959
   49   53     2   0.8333   0.09    0.09         0.24  0.079195959
   49   54     2   0.8333   0.09    0.05  0.268651185  0.020011711
   50   52     2   0.8333   0.09    0.09         0.24  0.079195959
   50   53     2   0.8333   0.09    0.09         0.24  0.079195959
   50   54     2   0.8333   0.09    0.05  0.268651185  0.020011711
   51   58     2   0.8333   0.09    0.05  0.268651185  0.020011711
   51   59     2   0.8333   0.09    0.05  0.268651185  0.020011711
   51   60     2   0.8333   0.05    0.05        0.321      0.08184
   52   55     2   0.8333   0.09    0.09         0.24  0.079195959
   52   56     2   0.8333   0.09    0.09         0.24  0.079195959
   52   57     2   0.8333   0.09    0.05  0.268651185  0.020011711
   53   55     2   0.8333   0.09    0.09         0.24  0.079195959
   53   56     2   0.8333   0.09    0.09         0.24  0.079195959
   53   57     2   0.8333   0.09    0.05  0.268651185  0.020011711
   54   61     2   0.8333   0.09    0.05  0.268651185  0.020011711
   54   62     2   0.8333   0.09    0.05  0.268651185  0.020011711
   54   63     2   0.8333  -0.15    0.05  0.355468589  0.109105371
   55   58     2   0.8333   0.09    0.09         0.24  0.079195959
   55   59     2   0.8333   0.09    0.09         0.24  0.079195959
   55   60     2   0.8333   0.09    0.05  0.268651185  0.020011711
   56   58     2   0.8333   0.09    0.09         0.24  0.079195959
   56   59     2   0.8333   0.09    0.09         0.24  0.079195959
   56   60     2   0.8333   0.09    0.05  0.268651185  0.020011711
   57   64     2   0.8333   0.15    0.05  0.280633096  0.073666922
   57   65     2   0.8333  -0.15    0.05  0.355468589  0.109105371
   58   61     2   0.8333   0.09    0.09         0.24  0.079195959
   58   62     2   0.8333   0.09    0.09         0.24  0.079195959
   58   63     2      1.0   0.09   -0.15        0.295  0.156971335
   59   61     2   0.8333   0.09    0.09         0.24  0.079195959
   59   62     2   0.8333   0.09    0.09         0.24  0.079195959
   59   63     2      1.0   0.09   -0.15        0.295  0.156971335
   60   66     2   0.8333   0.15    0.05  0.280633096  0.073666922
   60   67     2   0.8333   0.05    0.05        0.321      0.08184
   61   64     2   0.8333   0.09    0.15         0.22  0.074833148
   61   65     2      1.0   0.09   -0.15        0.295  0.156971335
   62   64     2   0.8333   0.09    0.15         0.22  0.074833148
   62   65     2      1.0   0.09   -0.15        0.295  0.156971335
   63   68     2      1.0  -0.15    0.09        0.295  0.156971335
   63   69     2      1.0  -0.15    0.09        0.295  0.156971335
   63   70     2   0.8333  -0.15    0.05  0.355468589  0.109105371
   64   66     2   0.8333   0.15    0.15          0.2  0.070710678
   64   67     2   0.8333   0.15    0.05  0.280633096  0.073666922
   65   71     2      1.0  -0.15    0.09        0.295  0.156971335
   65   72     2      1.0  -0.15    0.09        0.295  0.156971335
   65   73     2   0.8333  -0.15    0.05  0.355468589  0.109105371
   66   68     2   0.8333   0.15    0.09         0.22  0.074833148
   66   69     2   0.8333   0.15    0.09         0.22  0.074833148
   66   70     2   0.8333   0.15    0.05  0.280633096  0.073666922
   67   74     2   0.8333   0.09    0.05  0.268651185  0.020011711
   67   75     2   0.8333   0.09    0.05  0.268651185  0.020011711
   67   76     2   0.8333   0.05    0.05        0.321      0.08184
   68   71     2   0.8333   0.09    0.09         0.24  0.079195959
   68   72     2   0.8333   0.09    0.09         0.24  0.079195959
   68   73     2   0.8333   0.09    0.05  0.268651185  0.020011711
   69   71     2   0.8333   0.09    0.09         0.24  0.079195959
   69   72     2   0.8333   0.09    0.09         0.24  0.079195959
   69   73     2   0.8333   0.09    0.05  0.268651185  0.020011711
   70   77     2   0.8333   0.09    0.05  0.268651185  0.020011711
   70   78     2   0.8333   0.09    0.05  0.268651185  0.020011711
   70   79     2   0.8333   0.05    0.05        0.321      0.08184
   71   74     2   0.8333   0.09    0.09         0.24  0.079195959
   71   75     2   0.8333   0.09    0.09         0.24  0.079195959
   71   76     2   0.8333   0.09    0.05  0.268651185  0.020011711
   72   74     2   0.8333   0.09    0.09         0.24  0.079195959
   72   75     2   0.8333   0.09    0.09         0.24  0.079195959
   72   76     2   0.8333   0.09    0.05  0.268651185  0.020011711
   73   80     2   0.8333   0.09    0.05  0.268651185  0.020011711
   73   81     2   0.8333   0.09    0.05  0.268651185  0.020011711
   73   82     2   0.8333   0.05    0.05        0.321      0.08184
   74   77     2   0.8333   0.09    0.09         0.24  0.079195959
   74   78     2   0.8333   0.09    0.09         0.24  0.079195959
   74   79     2   0.8333   0.09    0.05  0.268651185  0.020011711
   75   77     2   0.8333   0.09    0.09         0.24  0.079195959
   75   78     2   0.8333   0.09    0.09         0.24  0.079195959
   75   79     2   0.8333   0.09    0.05  0.268651185  0.020011711
   76   83     2   0.8333   0.09    0.05  0.268651185  0.020011711
   76   84     2   0.8333   0.09    0.05  0.268651185  0.020011711
   76   85     2   0.8333   0.05    0.05        0.321      0.08184
   77   80     2   0.8333   0.09    0.09         0.24  0.079195959
   77   81     2   0.8333   0.09    0.09         0.24  0.079195959
   77   82     2   0.8333   0.09    0.05  0.268651185  0.020011711
   78   80     2   0.8333   0.09    0.09         0.24  0.079195959
   78   81     2   0.8333   0.09    0.09         0.24  0.079195959
   78   82     2   0.8333   0.09    0.05  0.268651185  0.020011711
   79   86     2   0.8333   0.09    0.05  0.268651185  0.020011711
   79   87     2   0.8333   0.09    0.05  0.268651185  0.020011711
   79   88     2   0.8333   0.05  -0.081        0.325      0.10184
   80   83     2   0.8333   0.09    0.09         0.24  0.079195959
   80   84     2   0.8333   0.09    0.09         0.24  0.079195959
   80   85     2   0.8333   0.09    0.05  0.268651185  0.020011711
   81   83     2   0.8333   0.09    0.09         0.24  0.079195959
   81   84     2   0.8333   0.09    0.09         0.24  0.079195959
   81   85     2   0.8333   0.09    0.05  0.268651185  0.020011711
   82   89     2   0.8333   0.09    0.05  0.288651185  0.064818249
   82   90     2   0.8333   0.09    0.05  0.288651185  0.064818249
   82   91     2   0.8333   0.09    0.05  0.288651185  0.064818249
   83   86     2   0.8333   0.09    0.09         0.24  0.079195959
   83   87     2   0.8333   0.09    0.09         0.24  0.079195959
   83   88     2   0.8333   0.09  -0.081  0.278651185  0.020011711
   84   86     2   0.8333   0.09    0.09         0.24  0.079195959
   84   87     2   0.8333   0.09    0.09         0.24  0.079195959
   84   88     2   0.8333   0.09  -0.081  0.278651185  0.020011711
   86   89     2   0.8333   0.09    0.09         0.23   0.07293833
   86   90     2   0.8333   0.09    0.09         0.23   0.07293833
   86   91     2   0.8333   0.09    0.09         0.23   0.07293833
   87   89     2   0.8333   0.09    0.09         0.23   0.07293833
   87   90     2   0.8333   0.09    0.09         0.23   0.07293833
   87   91     2   0.8333   0.09    0.09         0.23   0.07293833
   92   99     2   0.8333   0.09    0.05  0.268651185  0.020011711
   92  100     2   0.8333   0.09    0.05  0.268651185  0.020011711
   92  101     2   0.8333   0.05    0.05        0.321      0.08184
   93   96     2   0.8333   0.09    0.09         0.24  0.079195959
   93   97     2   0.8333   0.09    0.09         0.24  0.079195959
   93   98     2   0.8333   0.09    0.05  0.268651185  0.020011711
   94   96     2   0.8333   0.09    0.09         0.24  0.079195959
   94   97     2   0.8333   0.09    0.09         0.24  0.079195959
   94   98     2   0.8333   0.09    0.05  0.268651185  0.020011711
   95  102     2   0.8333   0.09    0.05  0.268651185  0.020011711
   95  103     2   0.8333   0.09    0.05  0.268651185  0.020011711
   95  104     2   0.8333   0.05    0.05        0.321      0.08184
   96   99     2   0.8333   0.09    0.09         0.24  0.079195959
   96  100     2   0.8333   0.09    0.09         0.24  0.079195959
   96  101     2   0.8333   0.09    0.05  0.268651185  0.020011711
   97   99     2   0.8333   0.09    0.09         0.24  0.079195959
   97  100     2   0.8333   0.09    0.09         0.24  0.079195959
   97  101     2   0.8333   0.09    0.05  0.268651185  0.020011711
   98  105     2   0.8333   0.09    0.05  0.268651185  0.020011711
   98  106     2   0.8333   0.09    0.05  0.268651185  0.020011711
   98  107     2   0.8333   0.05    0.05        0.321      0.08184
   99  102     2   0.8333   0.09    0.09         0.24  0.079195959
   99  103     2   0.8333   0.09    0.09         0.24  0.079195959
   99  104     2   0.8333   0.09    0.05  0.268651185  0.020011711
  100  102     2   0.8333   0.09    0.09         0.24  0.079195959
  100  103     2   0.8333   0.09    0.09         0.24  0.079195959
  100  104     2   0.8333   0.09    0.05  0.268651185  0.020011711
  101  108     2   0.8333   0.09    0.05  0.268651185  0.020011711
  101  109     2   0.8333   0.09    0.05  0.268651185  0.020011711
  101  110     2   0.8333   0.05    0.05        0.321      0.08184
  102  105     2   0.8333   0.09    0.09         0.24  0.079195959
  102  106     2   0.8333   0.09    0.09         0.24  0.079195959
  102  107     2   0.8333   0.09    0.05  0.268651185  0.020011711
  103  105     2   0.8333   0.09    0.09         0.24  0.079195959
  103  106     2   0.8333   0.09    0.09         0.24  0.079195959
  103  107     2   0.8333   0.09    0.05  0.268651185  0.020011711
  104  111     2   0.8333   0.09    0.05  0.268651185  0.020011711
  104  112     2   0.8333   0.09    0.05  0.268651185  0.020011711
  104  113     2   0.8333   0.05    0.05        0.321      0.08184
  105  108     2   0.8333   0.09    0.09         0.24  0.079195959
  105  109     2   0.8333   0.09    0.09         0.24  0.079195959
  105  110     2   0.8333   0.09    0.05  0.268651185  0.020011711
  106  108     2   0.8333   0.09    0.09         0.24  0.079195959
  106  109     2   0.8333   0.09    0.09         0.24  0.079195959
  106  110     2   0.8333   0.09    0.05  0.268651185  0.020011711
  107  114     2   0.8333   0.09    0.05  0.268651185  0.020011711
  107  115     2   0.8333   0.09    0.05  0.268651185  0.020011711
  107  116     2   0.8333   0.05    0.05        0.321      0.08184
  108  111     2   0.8333   0.09    0.09         0.24  0.079195959
  108  112     2   0.8333   0.09    0.09         0.24  0.079195959
  108  113     2   0.8333   0.09    0.05  0.268651185  0.020011711
  109  111     2   0.8333   0.09    0.09         0.24  0.079195959
  109  112     2   0.8333   0.09    0.09         0.24  0.079195959
  109  113     2   0.8333   0.09    0.05  0.268651185  0.020011711
  110  117     2   0.8333   0.09    0.05  0.268651185  0.020011711
  110  118     2   0.8333   0.09    0.05  0.268651185  0.020011711
  110  119     2   0.8333   0.05    0.05        0.321      0.08184
  111  114     2   0.8333   0.09    0.09         0.24  0.079195959
  111  115     2   0.8333   0.09    0.09         0.24  0.079195959
  111  116     2   0.8333   0.09    0.05  0.268651185  0.020011711
  112  114     2   0.8333   0.09    0.09         0.24  0.079195959
  112  115     2   0.8333   0.09    0.09         0.24  0.079195959
  112  116     2   0.8333   0.09    0.05  0.268651185  0.020011711
  113  120     2   0.8333   0.09    0.05  0.268651185  0.020011711
  113  121     2   0.8333   0.09    0.05  0.268651185  0.020011711
  113  122     2   0.8333   0.05    0.05        0.321      0.08184
  114  117     2   0.8333   0.09    0.09         0.24  0.079195959
  114  118     2   0.8333   0.09    0.09         0.24  0.079195959
  114  119     2   0.8333   0.09    0.05  0.268651185  0.020011711
  115  117     2   0.8333   0.09    0.09         0.24  0.079195959
  115  118     2   0.8333   0.09    0.09         0.24  0.079195959
  115  119     2   0.8333   0.09    0.05  0.268651185  0.020011711
  116  123     2   0.8333   0.09    0.05  0.268651185  0.020011711
  116  124     2   0.8333   0.09    0.05  0.268651185  0.020011711
  116  125     2   0.8333   0.05    0.05        0.321      0.08184
  117  120     2   0.8333   0.09    0.09         0.24  0.079195959
  117  121     2   0.8333   0.09    0.09         0.24  0.079195959
  117  122     2   0.8333   0.09    0.05  0.268651185  0.020011711
  118  120     2   0.8333   0.09    0.09         0.24  0.079195959
  118  121     2   0.8333   0.09    0.09         0.24  0.079195959
  118  122     2   0.8333   0.09    0.05  0.268651185  0.020011711
  119  126     2   0.8333   0.09    0.05  0.268651185  0.020011711
  119  127     2   0.8333   0.09    0.05  0.268651185  0.020011711
  119  128     2   0.8333   0.05    0.05        0.321      0.08184
  120  123     2   0.8333   0.09    0.09         0.24  0.079195959
  120  124     2   0.8333   0.09    0.09         0.24  0.079195959
  120  125     2   0.8333   0.09    0.05  0.268651185  0.020011711
  121  123     2   0.8333   0.09    0.09         0.24  0.079195959
  121  124     2   0.8333   0.09    0.09         0.24  0.079195959
  121  125     2   0.8333   0.09    0.05  0.268651185  0.020011711
  122  129     2   0.8333   0.09    0.05  0.268651185  0.020011711
  122  130     2   0.8333   0.09    0.05  0.268651185  0.020011711
  122  131     2   0.8333   0.05  -0.081        0.325      0.10184
  123  126     2   0.8333   0.09    0.09         0.24  0.079195959
  123  127     2   0.8333   0.09    0.09         0.24  0.079195959
  123  128     2   0.8333   0.09    0.05  0.268651185  0.020011711
  124  126     2   0.8333   0.09    0.09         0.24  0.079195959
  124  127     2   0.8333   0.09    0.09         0.24  0.079195959
  124  128     2   0.8333   0.09    0.05  0.268651185  0.020011711
  125  132     2   0.8333   0.09    0.05  0.288651185  0.064818249
  125  133     2   0.8333   0.09    0.05  0.288651185  0.064818249
  125  134     2   0.8333   0.09    0.05  0.288651185  0.064818249
  126  129     2   0.8333   0.09    0.09         0.24  0.079195959
  126  130     2   0.8333   0.09    0.09         0.24  0.079195959
  126  131     2   0.8333   0.09  -0.081  0.278651185  0.020011711
  127  129     2   0.8333   0.09    0.09         0.24  0.079195959
  127  130     2   0.8333   0.09    0.09         0.24  0.079195959
  127  131     2   0.8333   0.09  -0.081  0.278651185  0.020011711
  129  132     2   0.8333   0.09    0.09         0.23   0.07293833
  129  133     2   0.8333   0.09    0.09         0.23   0.07293833
  129  134     2   0.8333   0.09    0.09         0.23   0.07293833
  130  132     2   0.8333   0.09    0.09         0.23   0.07293833
  130  133     2   0.8333   0.09    0.09         0.23   0.07293833
  130  134     2   0.8333   0.09    0.09         0.23   0.07293833

[ angles ]
;  ai   aj   ak  func    th0        kth      r13        kub
    2    1    5     5  109.5     502.08   0.2466    21756.8
    2    1    9     5  109.5     502.08   0.2466    21756.8
    2    1   13     5  109.5     502.08   0.2466    21756.8
    5    1    9     5  109.5     502.08   0.2466    21756.8
    5    1   13     5  109.5     502.08   0.2466    21756.8
    9    1   13     5  109.5     502.08   0.2466    21756.8
    1    2    3     5  109.5     334.72    0.213    22593.6
    1    2    4     5  109.5     334.72    0.213    22593.6
    1    2   17     5  115.0   566.5136      0.0        0.0
    3    2    4     5  109.5    200.832   0.1767    23430.4
    3    2   17     5  110.1  279.74224   0.2179  18853.104
    4    2   17     5  110.1  279.74224   0.2179  18853.104
    1    5    6     5  109.5     334.72    0.213    22593.6
    1    5    7     5  109.5     334.72    0.213    22593.6
    1    5    8     5  109.5     334.72    0.213    22593.6
    6    5    7     5  109.5    200.832   0.1767    23430.4
    6    5    8     5  109.5    200.832   0.1767    23430.4
    7    5    8     5  109.5    200.832   0.1767    23430.4
    1    9   10     5  109.5     334.72    0.213    22593.6
    1    9   11     5  109.5     334.72    0.213    22593.6
    1    9   12     5  109.5     334.72    0.213    22593.6
   10    9   11     5  109.5    200.832   0.1767    23430.4
   10    9   12     5  109.5    200.832   0.1767    23430.4
   11    9   12     5  109.5    200.832   0.1767    23430.4
    1   13   14     5  109.5     334.72    0.213    22593.6
    1   13   15     5  109.5     334.72    0.213    22593.6
    1   13   16     5  109.5     334.72    0.213    22593.6
   14   13   15     5  109.5    200.832   0.1767    23430.4
   14   13   16     5  109.5    200.832   0.1767    23430.4
   15   13   16     5  109.5    200.832   0.1767    23430.4
    2   17   18     5  110.1    221.752   0.2179  18853.104
    2   17   19     5  110.1    221.752   0.2179  18853.104
    2   17   23     5  110.1   633.4576      0.0        0.0
   18   17   19     5  109.0    297.064   0.1802    4518.72
   18   17   23     5  109.5     502.08      0.0        0.0
   19   17   23     5  109.5     502.08      0.0        0.0
   21   20   22     5  120.0    1004.16      0.0        0.0
   21   20   23     5  111.6   827.5952      0.0        0.0
   21   20   24     5  111.6   827.5952      0.0        0.0
   22   20   23     5  111.6   827.5952      0.0        0.0
   22   20   24     5  111.6   827.5952      0.0        0.0
   23   20   24     5  104.3     669.44      0.0        0.0
   17   23   20     5  120.0     167.36    0.233    29288.0
   20   24   25     5  120.0     167.36    0.233    29288.0
   24   25   26     5  109.5     502.08      0.0        0.0
   24   25   27     5  109.5     502.08      0.0        0.0
   24   25   28     5  110.1   633.4576      0.0        0.0
   26   25   27     5  109.0    297.064   0.1802    4518.72
   26   25   28     5  110.1    221.752   0.2179  18853.104
   27   25   28     5  110.1    221.752   0.2179  18853.104
   25   28   29     5  110.1    288.696   0.2179  18853.104
   25   28   30     5  110.1   633.4576      0.0        0.0
   25   28   36     5  113.5   488.2728   0.2561   9338.688
   29   28   30     5  109.5     502.08      0.0        0.0
   29   28   36     5  110.1    288.696   0.2179  18853.104
   30   28   36     5  110.1   633.4576      0.0        0.0
   28   30   31     5  109.6     334.72  0.22651    25104.0
   30   31   32     5  125.9     753.12  0.22576   133888.0
   30   31   33     5  109.0     460.24   0.2326    16736.0
   32   31   33     5  125.0     585.76   0.2442    16736.0
   31   33   34     5  109.5    276.144   0.2163    25104.0
   31   33   35     5  109.5    276.144   0.2163    25104.0
   31   33   45     5  108.0    435.136      0.0        0.0
   34   33   35     5  109.0    297.064   0.1802    4518.72
   34   33   45     5  110.1    221.752   0.2179  18853.104
   35   33   45     5  110.1    221.752   0.2179  18853.104
   28   36   37     5  110.1    221.752   0.2179  18853.104
   28   36   38     5  110.1    221.752   0.2179  18853.104
   28   36   39     5  110.1   633.4576      0.0        0.0
   37   36   38     5  109.0    297.064   0.1802    4518.72
   37   36   39     5  109.5     502.08      0.0        0.0
   38   36   39     5  109.5     502.08      0.0        0.0
   36   39   40     5  109.6     334.72  0.22651    25104.0
   39   40   41     5  125.9     753.12  0.22576   133888.0
   39   40   42     5  109.0     460.24   0.2326    16736.0
   41   40   42     5  125.0     585.76   0.2442    16736.0
   40   42   43     5  109.5    276.144   0.2163    25104.0
   40   42   44     5  109.5    276.144   0.2163    25104.0
   40   42   92     5  108.0    435.136      0.0        0.0
   43   42   44     5  109.0    297.064   0.1802    4518.72
   43   42   92     5  110.1    221.752   0.2179  18853.104
   44   42   92     5  110.1    221.752   0.2179  18853.104
   33   45   46     5  110.1    221.752   0.2179  18853.104
   33   45   47     5  110.1    221.752   0.2179  18853.104
   33   45   48     5  113.6   488.2728   0.2561   9338.688
   46   45   47     5  109.0    297.064   0.1802    4518.72
   46   45   48     5  110.1    221.752   0.2179  18853.104
   47   45   48     5  110.1    221.752   0.2179  18853.104
   45   48   49     5  110.1    221.752   0.2179  18853.104
   45   48   50     5  110.1    221.752   0.2179  18853.104
   45   48   51     5  113.6   488.2728   0.2561   9338.688
   49   48   50     5  109.0    297.064   0.1802    4518.72
   49   48   51     5  110.1    221.752   0.2179  18853.104
   50   48   51     5  110.1    221.752   0.2179  18853.104
   48   51   52     5  110.1    221.752   0.2179  18853.104
   48   51   53     5  110.1    221.752   0.2179  18853.104
   48   51   54     5  113.6   488.2728   0.2561   9338.688
   52   51   53     5  109.0    297.064   0.1802    4518.72
   52   51   54     5  110.1    221.752   0.2179  18853.104
   53   51   54     5  110.1    221.752   0.2179  18853.104
   51   54   55     5  110.1    221.752   0.2179  18853.104
   51   54   56     5  110.1    221.752   0.2179  18853.104
   51   54   57     5  113.6   488.2728   0.2561   9338.688
   55   54   56     5  109.0    297.064   0.1802    4518.72
   55   54   57     5  110.1    221.752   0.2179  18853.104
   56   54   57     5  110.1    221.752   0.2179  18853.104
   54   57   58     5  110.1    221.752   0.2179  18853.104
   54   57   59     5  110.1    221.752   0.2179  18853.104
   54   57   60     5  113.6   488.2728   0.2561   9338.688
   58   57   59     5  109.0    297.064   0.1802    4518.72
   58   57   60     5  110.1    221.752   0.2179  18853.104
   59   57   60     5  110.1    221.752   0.2179  18853.104
   57   60   61     5  110.1    221.752   0.2179  18853.104
   57   60   62     5  110.1    221.752   0.2179  18853.104
   57   60   63     5  112.2    267.776      0.0        0.0
   61   60   62     5  109.0    297.064   0.1802    4518.72
   61   60   63     5  111.5     376.56      0.0        0.0
   62   60   63     5  111.5     376.56      0.0        0.0
   60   63   64     5  116.0     334.72      0.0        0.0
   60   63   65     5  123.5    401.664      0.0        0.0
   64   63   65     5  119.5    435.136      0.0        0.0
   63   65   66     5  119.5    435.136      0.0        0.0
   63   65   67     5  123.5    401.664      0.0        0.0
   66   65   67     5  116.0     334.72      0.0        0.0
   65   67   68     5  111.5     376.56      0.0        0.0
   65   67   69     5  111.5     376.56      0.0        0.0
   65   67   70     5  112.2    267.776      0.0        0.0
   68   67   69     5  109.0    297.064   0.1802    4518.72
   68   67   70     5  110.1    221.752   0.2179  18853.104
   69   67   70     5  110.1    221.752   0.2179  18853.104
   67   70   71     5  110.1    221.752   0.2179  18853.104
   67   70   72     5  110.1    221.752   0.2179  18853.104
   67   70   73     5  113.6   488.2728   0.2561   9338.688
   71   70   72     5  109.0    297.064   0.1802    4518.72
   71   70   73     5  110.1    221.752   0.2179  18853.104
   72   70   73     5  110.1    221.752   0.2179  18853.104
   70   73   74     5  110.1    221.752   0.2179  18853.104
   70   73   75     5  110.1    221.752   0.2179  18853.104
   70   73   76     5  113.6   488.2728   0.2561   9338.688
   74   73   75     5  109.0    297.064   0.1802    4518.72
   74   73   76     5  110.1    221.752   0.2179  18853.104
   75   73   76     5  110.1    221.752   0.2179  18853.104
   73   76   77     5  110.1    221.752   0.2179  18853.104
   73   76   78     5  110.1    221.752   0.2179  18853.104
   73   76   79     5  113.6   488.2728   0.2561   9338.688
   77   76   78     5  109.0    297.064   0.1802    4518.72
   77   76   79     5  110.1    221.752   0.2179  18853.104
   78   76   79     5  110.1    221.752   0.2179  18853.104
   76   79   80     5  110.1    221.752   0.2179  18853.104
   76   79   81     5  110.1    221.752   0.2179  18853.104
   76   79   82     5  113.6   488.2728   0.2561   9338.688
   80   79   81     5  109.0    297.064   0.1802    4518.72
   80   79   82     5  110.1    221.752   0.2179  18853.104
   81   79   82     5  110.1    221.752   0.2179  18853.104
   79   82   83     5  110.1    221.752   0.2179  18853.104
   79   82   84     5  110.1    221.752   0.2179  18853.104
   79   82   85     5  113.6   488.2728   0.2561   9338.688
   83   82   84     5  109.0    297.064   0.1802    4518.72
   83   82   85     5  110.1    221.752   0.2179  18853.104
   84   82   85     5  110.1    221.752   0.2179  18853.104
   82   85   86     5  110.1    221.752   0.2179  18853.104
   82   85   87     5  110.1    221.752   0.2179  18853.104
   82   85   88     5  115.0    485.344   0.2561     6694.4
   86   85   87     5  109.0    297.064   0.1802    4518.72
   86   85   88     5  110.1   289.5328   0.2179  18853.104
   87   85   88     5  110.1   289.5328   0.2179  18853.104
   85   88   89     5  110.1   289.5328   0.2179  18853.104
   85   88   90     5  110.1   289.5328   0.2179  18853.104
   85   88   91     5  110.1   289.5328   0.2179  18853.104
   89   88   90     5  108.4    297.064   0.1802    4518.72
   89   88   91     5  108.4    297.064   0.1802    4518.72
   90   88   91     5  108.4    297.064   0.1802    4518.72
   42   92   93     5  110.1    221.752   0.2179  18853.104
   42   92   94     5  110.1    221.752   0.2179  18853.104
   42   92   95     5  113.6   488.2728   0.2561   9338.688
   93   92   94     5  109.0    297.064   0.1802    4518.72
   93   92   95     5  110.1    221.752   0.2179  18853.104
   94   92   95     5  110.1    221.752   0.2179  18853.104
   92   95   96     5  110.1    221.752   0.2179  18853.104
   92   95   97     5  110.1    221.752   0.2179  18853.104
   92   95   98     5  113.6   488.2728   0.2561   9338.688
   96   95   97     5  109.0    297.064   0.1802    4518.72
   96   95   98     5  110.1    221.752   0.2179  18853.104
   97   95   98     5  110.1    221.752   0.2179  18853.104
   95   98   99     5  110.1    221.752   0.2179  18853.104
   95   98  100     5  110.1    221.752   0.2179  18853.104
   95   98  101     5  113.6   488.2728   0.2561   9338.688
   99   98  100     5  109.0    297.064   0.1802    4518.72
   99   98  101     5  110.1    221.752   0.2179  18853.104
  100   98  101     5  110.1    221.752   0.2179  18853.104
   98  101  102     5  110.1    221.752   0.2179  18853.104
   98  101  103     5  110.1    221.752   0.2179  18853.104
   98  101  104     5  113.6   488.2728   0.2561   9338.688
  102  101  103     5  109.0    297.064   0.1802    4518.72
  102  101  104     5  110.1    221.752   0.2179  18853.104
  103  101  104     5  110.1    221.752   0.2179  18853.104
  101  104  105     5  110.1    221.752   0.2179  18853.104
  101  104  106     5  110.1    221.752   0.2179  18853.104
  101  104  107     5  113.6   488.2728   0.2561   9338.688
  105  104  106     5  109.0    297.064   0.1802    4518.72
  105  104  107     5  110.1    221.752   0.2179  18853.104
  106  104  107     5  110.1    221.752   0.2179  18853.104
  104  107  108     5  110.1    221.752   0.2179  18853.104
  104  107  109     5  110.1    221.752   0.2179  18853.104
  104  107  110     5  113.6   488.2728   0.2561   9338.688
  108  107  109     5  109.0    297.064   0.1802    4518.72
  108  107  110     5  110.1    221.752   0.2179  18853.104
  109  107  110     5  110.1    221.752   0.2179  18853.104
  107  110  111     5  110.1    221.752   0.2179  18853.104
  107  110  112     5  110.1    221.752   0.2179  18853.104
  107  110  113     5  113.6   488.2728   0.2561   9338.688
  111  110  112     5  109.0    297.064   0.1802    4518.72
  111  110  113     5  110.1    221.752   0.2179  18853.104
  112  110  113     5  110.1    221.752   0.2179  18853.104
  110  113  114     5  110.1    221.752   0.2179  18853.104
  110  113  115     5  110.1    221.752   0.2179  18853.104
  110  113  116     5  113.6   488.2728   0.2561   9338.688
  114  113  115     5  109.0    297.064   0.1802    4518.72
  114  113  116     5  110.1    221.752   0.2179  18853.104
  115  113  116     5  110.1    221.752   0.2179  18853.104
  113  116  117     5  110.1    221.752   0.2179  18853.104
  113  116  118     5  110.1    221.752   0.2179  18853.104
  113  116  119     5  113.6   488.2728   0.2561   9338.688
  117  116  118     5  109.0    297.064   0.1802    4518.72
  117  116  119     5  110.1    221.752   0.2179  18853.104
  118  116  119     5  110.1    221.752   0.2179  18853.104
  116  119  120     5  110.1    221.752   0.2179  18853.104
  116  119  121     5  110.1    221.752   0.2179  18853.104
  116  119  122     5  113.6   488.2728   0.2561   9338.688
  120  119  121     5  109.0    297.064   0.1802    4518.72
  120  119  122     5  110.1    221.752   0.2179  18853.104
  121  119  122     5  110.1    221.752   0.2179  18853.104
  119  122  123     5  110.1    221.752   0.2179  18853.104
  119  122  124     5  110.1    221.752   0.2179  18853.104
  119  122  125     5  113.6   488.2728   0.2561   9338.688
  123  122  124     5  109.0    297.064   0.1802    4518.72
  123  122  125     5  110.1    221.752   0.2179  18853.104
  124  122  125     5  110.1    221.752   0.2179  18853.104
  122  125  126     5  110.1    221.752   0.2179  18853.104
  122  125  127     5  110.1    221.752   0.2179  18853.104
  122  125  128     5  113.6   488.2728   0.2561   9338.688
  126  125  127     5  109.0    297.064   0.1802    4518.72
  126  125  128     5  110.1    221.752   0.2179  18853.104
  127  125  128     5  110.1    221.752   0.2179  18853.104
  125  128  129     5  110.1    221.752   0.2179  18853.104
  125  128  130     5  110.1    221.752   0.2179  18853.104
  125  128  131     5  115.0    485.344   0.2561     6694.4
  129  128  130     5  109.0    297.064   0.1802    4518.72
  129  128  131     5  110.1   289.5328   0.2179  18853.104
  130  128  131     5  110.1   289.5328   0.2179  18853.104
  128  131  132     5  110.1   289.5328   0.2179  18853.104
  128  131  133     5  110.1   289.5328   0.2179  18853.104
  128  131  134     5  110.1   289.5328   0.2179  18853.104
  132  131  133     5  108.4    297.064   0.1802    4518.72
  132  131  134     5  108.4    297.064   0.1802    4518.72
  133  131  134     5  108.4    297.064   0.1802    4518.72

[ dihedrals ]
;  ai   aj   ak   al  func  phi_s        kphi  mult
    5    1    2   17     9    0.0     1.08784     3
    9    1    2   17     9    0.0     1.08784     3
   13    1    2   17     9    0.0     1.08784     3
    2    1    5    6     9    0.0     0.96232     3
    2    1    5    7     9    0.0     0.96232     3
    2    1    5    8     9    0.0     0.96232     3
    2    1    9   10     9    0.0     0.96232     3
    2    1    9   11     9    0.0     0.96232     3
    2    1    9   12     9    0.0     0.96232     3
    5    1    9   10     9    0.0     0.96232     3
    5    1    9   11     9    0.0     0.96232     3
    5    1    9   12     9    0.0     0.96232     3
    2    1   13   14     9    0.0     0.96232     3
    2    1   13   15     9    0.0     0.96232     3
    2    1   13   16     9    0.0     0.96232     3
    5    1   13   14     9    0.0     0.96232     3
    5    1   13   15     9    0.0     0.96232     3
    5    1   13   16     9    0.0     0.96232     3
    9    1   13   14     9    0.0     0.96232     3
    9    1   13   15     9    0.0     0.96232     3
    9    1   13   16     9    0.0     0.96232     3
    3    2    1    5     9    0.0     1.08784     3
    3    2    1    9     9    0.0     1.08784     3
    3    2    1   13     9    0.0     1.08784     3
    4    2    1    5     9    0.0     1.08784     3
    4    2    1    9     9    0.0     1.08784     3
    4    2    1   13     9    0.0     1.08784     3
    1    2   17   18     9    0.0     0.79496     3
    1    2   17   19     9    0.0     0.79496     3
    1    2   17   23     9  180.0     13.8072     1
    1    2   17   23     9  180.0     -1.6736     3
    3    2   17   18     9    0.0     0.79496     3
    3    2   17   19     9    0.0     0.79496     3
    3    2   17   23     9    0.0     0.79496     3
    4    2   17   18     9    0.0     0.79496     3
    4    2   17   19     9    0.0     0.79496     3
    4    2   17   23     9    0.0     0.79496     3
    6    5    1    9     9    0.0     0.96232     3
    6    5    1   13     9    0.0     0.96232     3
    7    5    1    9     9    0.0     0.96232     3
    7    5    1   13     9    0.0     0.96232     3
    8    5    1    9     9    0.0     0.96232     3
    8    5    1   13     9    0.0     0.96232     3
   10    9    1   13     9    0.0     0.96232     3
   11    9    1   13     9    0.0     0.96232     3
   12    9    1   13     9    0.0     0.96232     3
    2   17   23   20     9    0.0    1.702888     2
    2   17   23   20     9  180.0    1.008344     1
   18   17   23   20     9    0.0         0.0     3
   19   17   23   20     9    0.0         0.0     3
   21   20   24   25     9    0.0      0.4184     3
   22   20   24   25     9    0.0      0.4184     3
   23   20   24   25     9  180.0      5.0208     1
   23   20   24   25     9  180.0      0.4184     2
   23   20   24   25     9  180.0      0.4184     3
   17   23   20   21     9    0.0      0.4184     3
   17   23   20   22     9    0.0      0.4184     3
   17   23   20   24     9  180.0      5.0208     1
   17   23   20   24     9  180.0      0.4184     2
   17   23   20   24     9  180.0      0.4184     3
   20   24   25   26     9    0.0         0.0     3
   20   24   25   27     9    0.0         0.0     3
   20   24   25   28     9    0.0    1.702888     2
   20   24   25   28     9  180.0    1.008344     1
   24   25   28   29     9    0.0      0.8368     3
   24   25   28   30     9    0.0         0.0     4
   24   25   28   30     9  180.0    2.539688     3
   24   25   28   30     9   60.0    1.062736     2
   24   25   28   30     9  180.0    8.434944     1
   24   25   28   36     9    0.0      0.8368     3
   26   25   28   29     9    0.0      0.8368     3
   26   25   28   30     9    0.0      0.8368     3
   26   25   28   36     9    0.0      0.8368     3
   27   25   28   29     9    0.0      0.8368     3
   27   25   28   30     9    0.0      0.8368     3
   27   25   28   36     9    0.0      0.8368     3
   25   28   30   31     9    0.0         0.0     4
   25   28   30   31     9  180.0      0.6276     3
   25   28   30   31     9  180.0    6.079352     2
   25   28   30   31     9  180.0    3.502008     1
   29   28   30   31     9    0.0         0.0     3
   25   28   36   37     9    0.0      0.8368     3
   25   28   36   38     9    0.0      0.8368     3
   25   28   36   39     9    0.0         0.0     3
   29   28   36   37     9    0.0      0.8368     3
   29   28   36   38     9    0.0      0.8368     3
   29   28   36   39     9    0.0      0.8368     3
   30   28   36   37     9    0.0      0.8368     3
   30   28   36   38     9    0.0      0.8368     3
   30   28   36   39     9   60.0   -1.794936     4
   30   28   36   39     9    0.0    2.568976     3
   30   28   36   39     9   60.0    -0.48116     2
   30   28   36   39     9  180.0    2.941352     1
   31   30   28   36     9    0.0         0.0     4
   31   30   28   36     9  180.0      0.6276     3
   31   30   28   36     9  180.0    6.079352     2
   31   30   28   36     9  180.0    3.502008     1
   28   30   31   32     9  180.0     4.03756     1
   28   30   31   32     9  180.0     16.1084     2
   28   30   31   33     9  180.0      8.5772     2
   30   31   33   34     9  180.0         0.0     6
   30   31   33   35     9  180.0         0.0     6
   30   31   33   45     9    0.0         0.0     6
   30   31   33   45     9  180.0     0.12552     3
   30   31   33   45     9  180.0    1.807488     2
   30   31   33   45     9    0.0    1.389088     1
   32   31   33   34     9  180.0         0.0     6
   32   31   33   35     9  180.0         0.0     6
   32   31   33   45     9  180.0      0.2092     6
   31   33   45   46     9    0.0     0.79496     3
   31   33   45   47     9    0.0     0.79496     3
   31   33   45   48     9  180.0         0.0     5
   31   33   45   48     9  180.0    1.326328     3
   31   33   45   48     9    0.0    2.330488     2
   31   33   45   48     9    0.0    3.150552     1
   34   33   45   46     9    0.0     0.79496     3
   34   33   45   47     9    0.0     0.79496     3
   34   33   45   48     9    0.0     0.79496     3
   35   33   45   46     9    0.0     0.79496     3
   35   33   45   47     9    0.0     0.79496     3
   35   33   45   48     9    0.0     0.79496     3
   28   36   39   40     9  180.0    1.117128     3
   28   36   39   40     9    0.0    0.723832     2
   28   36   39   40     9  180.0    3.267704     1
   37   36   39   40     9    0.0         0.0     3
   38   36   39   40     9    0.0         0.0     3
   36   39   40   41     9  180.0     4.03756     1
   36   39   40   41     9  180.0     16.1084     2
   36   39   40   42     9  180.0      8.5772     2
   39   40   42   43     9  180.0         0.0     6
   39   40   42   44     9  180.0         0.0     6
   39   40   42   92     9    0.0         0.0     6
   39   40   42   92     9  180.0     0.12552     3
   39   40   42   92     9  180.0    1.807488     2
   39   40   42   92     9    0.0    1.389088     1
   41   40   42   43     9  180.0         0.0     6
   41   40   42   44     9  180.0         0.0     6
   41   40   42   92     9  180.0      0.2092     6
   40   42   92   93     9    0.0     0.79496     3
   40   42   92   94     9    0.0     0.79496     3
   40   42   92   95     9  180.0         0.0     5
   40   42   92   95     9  180.0    1.326328     3
   40   42   92   95     9    0.0    2.330488     2
   40   42   92   95     9    0.0    3.150552     1
   43   42   92   93     9    0.0     0.79496     3
   43   42   92   94     9    0.0     0.79496     3
   43   42   92   95     9    0.0     0.79496     3
   44   42   92   93     9    0.0     0.79496     3
   44   42   92   94     9    0.0     0.79496     3
   44   42   92   95     9    0.0     0.79496     3
   33   45   48   49     9    0.0     0.79496     3
   33   45   48   50     9    0.0     0.79496     3
   33   45   48   51     9    0.0   0.0602934     2
   33   45   48   51     9  180.0   0.2036253     3
   33   45   48   51     9    0.0   0.5540505     4
   33   45   48   51     9    0.0   0.4020192     5
   46   45   48   49     9    0.0     0.79496     3
   46   45   48   50     9    0.0     0.79496     3
   46   45   48   51     9    0.0     0.79496     3
   47   45   48   49     9    0.0     0.79496     3
   47   45   48   50     9    0.0     0.79496     3
   47   45   48   51     9    0.0     0.79496     3
   45   48   51   52     9    0.0     0.79496     3
   45   48   51   53     9    0.0     0.79496     3
   45   48   51   54     9    0.0   0.0602934     2
   45   48   51   54     9  180.0   0.2036253     3
   45   48   51   54     9    0.0   0.5540505     4
   45   48   51   54     9    0.0   0.4020192     5
   49   48   51   52     9    0.0     0.79496     3
   49   48   51   53     9    0.0     0.79496     3
   49   48   51   54     9    0.0     0.79496     3
   50   48   51   52     9    0.0     0.79496     3
   50   48   51   53     9    0.0     0.79496     3
   50   48   51   54     9    0.0     0.79496     3
   48   51   54   55     9    0.0     0.79496     3
   48   51   54   56     9    0.0     0.79496     3
   48   51   54   57     9    0.0   0.0602934     2
   48   51   54   57     9  180.0   0.2036253     3
   48   51   54   57     9    0.0   0.5540505     4
   48   51   54   57     9    0.0   0.4020192     5
   52   51   54   55     9    0.0     0.79496     3
   52   51   54   56     9    0.0     0.79496     3
   52   51   54   57     9    0.0     0.79496     3
   53   51   54   55     9    0.0     0.79496     3
   53   51   54   56     9    0.0     0.79496     3
   53   51   54   57     9    0.0     0.79496     3
   51   54   57   58     9    0.0     0.79496     3
   51   54   57   59     9    0.0     0.79496     3
   51   54   57   60     9    0.0   0.0602934     2
   51   54   57   60     9  180.0   0.2036253     3
   51   54   57   60     9    0.0   0.5540505     4
   51   54   57   60     9    0.0   0.4020192     5
   55   54   57   58     9    0.0     0.79496     3
   55   54   57   59     9    0.0     0.79496     3
   55   54   57   60     9    0.0     0.79496     3
   56   54   57   58     9    0.0     0.79496     3
   56   54   57   59     9    0.0     0.79496     3
   56   54   57   60     9    0.0     0.79496     3
   54   57   60   61     9    0.0     0.79496     3
   54   57   60   62     9    0.0     0.79496     3
   54   57   60   63     9  180.0  -0.1859021     1
   54   57   60   63     9    0.0   0.0771234     2
   54   57   60   63     9  180.0   0.0692377     3
   58   57   60   61     9    0.0     0.79496     3
   58   57   60   62     9    0.0     0.79496     3
   58   57   60   63     9    0.0     0.79496     3
   59   57   60   61     9    0.0     0.79496     3
   59   57   60   62     9    0.0     0.79496     3
   59   57   60   63     9    0.0     0.79496     3
   57   60   63   64     9    0.0     0.50208     3
   57   60   63   65     9    0.0     3.96678     1
   57   60   63   65     9    0.0      3.8895     2
   57   60   63   65     9    0.0    -0.13839     3
   57   60   63   65     9    0.0     1.89218     4
   57   60   63   65     9    0.0    0.421326     5
   57   60   63   65     9    0.0    0.421278     6
   61   60   63   64     9    0.0         0.0     3
   61   60   63   65     9  180.0      1.2552     3
   62   60   63   64     9    0.0         0.0     3
   62   60   63   65     9  180.0      1.2552     3
   60   63   65   66     9  180.0      1.8828     1
   60   63   65   66     9  180.0      35.564     2
   60   63   65   67     9  180.0      1.8828     1
   60   63   65   67     9  180.0      35.564     2
   64   63   65   66     9  180.0       4.184     2
   64   63   65   67     9  180.0      1.8828     1
   64   63   65   67     9  180.0      35.564     2
   63   65   67   68     9  180.0      1.2552     3
   63   65   67   69     9  180.0      1.2552     3
   63   65   67   70     9    0.0     3.96678     1
   63   65   67   70     9    0.0      3.8895     2
   63   65   67   70     9    0.0    -0.13839     3
   63   65   67   70     9    0.0     1.89218     4
   63   65   67   70     9    0.0    0.421326     5
   63   65   67   70     9    0.0    0.421278     6
   66   65   67   68     9    0.0         0.0     3
   66   65   67   69     9    0.0         0.0     3
   66   65   67   70     9    0.0     0.50208     3
   65   67   70   71     9    0.0     0.79496     3
   65   67   70   72     9    0.0     0.79496     3
   65   67   70   73     9  180.0  -0.1859021     1
   65   67   70   73     9    0.0   0.0771234     2
   65   67   70   73     9  180.0   0.0692377     3
   68   67   70   71     9    0.0     0.79496     3
   68   67   70   72     9    0.0     0.79496     3
   68   67   70   73     9    0.0     0.79496     3
   69   67   70   71     9    0.0     0.79496     3
   69   67   70   72     9    0.0     0.79496     3
   69   67   70   73     9    0.0     0.79496     3
   67   70   73   74     9    0.0     0.79496     3
   67   70   73   75     9    0.0     0.79496     3
   67   70   73   76     9    0.0   0.0602934     2
   67   70   73   76     9  180.0   0.2036253     3
   67   70   73   76     9    0.0   0.5540505     4
   67   70   73   76     9    0.0   0.4020192     5
   71   70   73   74     9    0.0     0.79496     3
   71   70   73   75     9    0.0     0.79496     3
   71   70   73   76     9    0.0     0.79496     3
   72   70   73   74     9    0.0     0.79496     3
   72   70   73   75     9    0.0     0.79496     3
   72   70   73   76     9    0.0     0.79496     3
   70   73   76   77     9    0.0     0.79496     3
   70   73   76   78     9    0.0     0.79496     3
   70   73   76   79     9    0.0   0.0602934     2
   70   73   76   79     9  180.0   0.2036253     3
   70   73   76   79     9    0.0   0.5540505     4
   70   73   76   79     9    0.0   0.4020192     5
   74   73   76   77     9    0.0     0.79496     3
   74   73   76   78     9    0.0     0.79496     3
   74   73   76   79     9    0.0     0.79496     3
   75   73   76   77     9    0.0     0.79496     3
   75   73   76   78     9    0.0     0.79496     3
   75   73   76   79     9    0.0     0.79496     3
   73   76   79   80     9    0.0     0.79496     3
   73   76   79   81     9    0.0     0.79496     3
   73   76   79   82     9    0.0   0.0602934     2
   73   76   79   82     9  180.0   0.2036253     3
   73   76   79   82     9    0.0   0.5540505     4
   73   76   79   82     9    0.0   0.4020192     5
   77   76   79   80     9    0.0     0.79496     3
   77   76   79   81     9    0.0     0.79496     3
   77   76   79   82     9    0.0     0.79496     3
   78   76   79   80     9    0.0     0.79496     3
   78   76   79   81     9    0.0     0.79496     3
   78   76   79   82     9    0.0     0.79496     3
   76   79   82   83     9    0.0     0.79496     3
   76   79   82   84     9    0.0     0.79496     3
   76   79   82   85     9    0.0   0.0602934     2
   76   79   82   85     9  180.0   0.2036253     3
   76   79   82   85     9    0.0   0.5540505     4
   76   79   82   85     9    0.0   0.4020192     5
   80   79   82   83     9    0.0     0.79496     3
   80   79   82   84     9    0.0     0.79496     3
   80   79   82   85     9    0.0     0.79496     3
   81   79   82   83     9    0.0     0.79496     3
   81   79   82   84     9    0.0     0.79496     3
   81   79   82   85     9    0.0     0.79496     3
   79   82   85   86     9    0.0     0.79496     3
   79   82   85   87     9    0.0     0.79496     3
   79   82   85   88     9    0.0  -0.0835134     2
   79   82   85   88     9  180.0   0.2659461     3
   79   82   85   88     9    0.0  -0.3460375     4
   79   82   85   88     9    0.0   0.4006127     5
   83   82   85   86     9    0.0     0.79496     3
   83   82   85   87     9    0.0     0.79496     3
   83   82   85   88     9    0.0     0.79496     3
   84   82   85   86     9    0.0     0.79496     3
   84   82   85   87     9    0.0     0.79496     3
   84   82   85   88     9    0.0     0.79496     3
   82   85   88   89     9    0.0     0.66944     3
   82   85   88   90     9    0.0     0.66944     3
   82   85   88   91     9    0.0     0.66944     3
   86   85   88   89     9    0.0     0.66944     3
   86   85   88   90     9    0.0     0.66944     3
   86   85   88   91     9    0.0     0.66944     3
   87   85   88   89     9    0.0     0.66944     3
   87   85   88   90     9    0.0     0.66944     3
   87   85   88   91     9    0.0     0.66944     3
   42   92   95   96     9    0.0     0.79496     3
   42   92   95   97     9    0.0     0.79496     3
   42   92   95   98     9    0.0   0.0602934     2
   42   92   95   98     9  180.0   0.2036253     3
   42   92   95   98     9    0.0   0.5540505     4
   42   92   95   98     9    0.0   0.4020192     5
   93   92   95   96     9    0.0     0.79496     3
   93   92   95   97     9    0.0     0.79496     3
   93   92   95   98     9    0.0     0.79496     3
   94   92   95   96     9    0.0     0.79496     3
   94   92   95   97     9    0.0     0.79496     3
   94   92   95   98     9    0.0     0.79496     3
   92   95   98   99     9    0.0     0.79496     3
   92   95   98  100     9    0.0     0.79496     3
   92   95   98  101     9    0.0   0.0602934     2
   92   95   98  101     9  180.0   0.2036253     3
   92   95   98  101     9    0.0   0.5540505     4
   92   95   98  101     9    0.0   0.4020192     5
   96   95   98   99     9    0.0     0.79496     3
   96   95   98  100     9    0.0     0.79496     3
   96   95   98  101     9    0.0     0.79496     3
   97   95   98   99     9    0.0     0.79496     3
   97   95   98  100     9    0.0     0.79496     3
   97   95   98  101     9    0.0     0.79496     3
   95   98  101  102     9    0.0     0.79496     3
   95   98  101  103     9    0.0     0.79496     3
   95   98  101  104     9    0.0   0.0602934     2
   95   98  101  104     9  180.0   0.2036253     3
   95   98  101  104     9    0.0   0.5540505     4
   95   98  101  104     9    0.0   0.4020192     5
   99   98  101  102     9    0.0     0.79496     3
   99   98  101  103     9    0.0     0.79496     3
   99   98  101  104     9    0.0     0.79496     3
  100   98  101  102     9    0.0     0.79496     3
  100   98  101  103     9    0.0     0.79496     3
  100   98  101  104     9    0.0     0.79496     3
   98  101  104  105     9    0.0     0.79496     3
   98  101  104  106     9    0.0     0.79496     3
   98  101  104  107     9    0.0   0.0602934     2
   98  101  104  107     9  180.0   0.2036253     3
   98  101  104  107     9    0.0   0.5540505     4
   98  101  104  107     9    0.0   0.4020192     5
  102  101  104  105     9    0.0     0.79496     3
  102  101  104  106     9    0.0     0.79496     3
  102  101  104  107     9    0.0     0.79496     3
  103  101  104  105     9    0.0     0.79496     3
  103  101  104  106     9    0.0     0.79496     3
  103  101  104  107     9    0.0     0.79496     3
  101  104  107  108     9    0.0     0.79496     3
  101  104  107  109     9    0.0     0.79496     3
  101  104  107  110     9    0.0   0.0602934     2
  101  104  107  110     9  180.0   0.2036253     3
  101  104  107  110     9    0.0   0.5540505     4
  101  104  107  110     9    0.0   0.4020192     5
  105  104  107  108     9    0.0     0.79496     3
  105  104  107  109     9    0.0     0.79496     3
  105  104  107  110     9    0.0     0.79496     3
  106  104  107  108     9    0.0     0.79496     3
  106  104  107  109     9    0.0     0.79496     3
  106  104  107  110     9    0.0     0.79496     3
  104  107  110  111     9    0.0     0.79496     3
  104  107  110  112     9    0.0     0.79496     3
  104  107  110  113     9    0.0   0.0602934     2
  104  107  110  113     9  180.0   0.2036253     3
  104  107  110  113     9    0.0   0.5540505     4
  104  107  110  113     9    0.0   0.4020192     5
  108  107  110  111     9    0.0     0.79496     3
  108  107  110  112     9    0.0     0.79496     3
  108  107  110  113     9    0.0     0.79496     3
  109  107  110  111     9    0.0     0.79496     3
  109  107  110  112     9    0.0     0.79496     3
  109  107  110  113     9    0.0     0.79496     3
  107  110  113  114     9    0.0     0.79496     3
  107  110  113  115     9    0.0     0.79496     3
  107  110  113  116     9    0.0   0.0602934     2
  107  110  113  116     9  180.0   0.2036253     3
  107  110  113  116     9    0.0   0.5540505     4
  107  110  113  116     9    0.0   0.4020192     5
  111  110  113  114     9    0.0     0.79496     3
  111  110  113  115     9    0.0     0.79496     3
  111  110  113  116     9    0.0     0.79496     3
  112  110  113  114     9    0.0     0.79496     3
  112  110  113  115     9    0.0     0.79496     3
  112  110  113  116     9    0.0     0.79496     3
  110  113  116  117     9    0.0     0.79496     3
  110  113  116  118     9    0.0     0.79496     3
  110  113  116  119     9    0.0   0.0602934     2
  110  113  116  119     9  180.0   0.2036253     3
  110  113  116  119     9    0.0   0.5540505     4
  110  113  116  119     9    0.0   0.4020192     5
  114  113  116  117     9    0.0     0.79496     3
  114  113  116  118     9    0.0     0.79496     3
  114  113  116  119     9    0.0     0.79496     3
  115  113  116  117     9    0.0     0.79496     3
  115  113  116  118     9    0.0     0.79496     3
  115  113  116  119     9    0.0     0.79496     3
  113  116  119  120     9    0.0     0.79496     3
  113  116  119  121     9    0.0     0.79496     3
  113  116  119  122     9    0.0   0.0602934     2
  113  116  119  122     9  180.0   0.2036253     3
  113  116  119  122     9    0.0   0.5540505     4
  113  116  119  122     9    0.0   0.4020192     5
  117  116  119  120     9    0.0     0.79496     3
  117  116  119  121     9    0.0     0.79496     3
  117  116  119  122     9    0.0     0.79496     3
  118  116  119  120     9    0.0     0.79496     3
  118  116  119  121     9    0.0     0.79496     3
  118  116  119  122     9    0.0     0.79496     3
  116  119  122  123     9    0.0     0.79496     3
  116  119  122  124     9    0.0     0.79496     3
  116  119  122  125     9    0.0   0.0602934     2
  116  119  122  125     9  180.0   0.2036253     3
  116  119  122  125     9    0.0   0.5540505     4
  116  119  122  125     9    0.0   0.4020192     5
  120  119  122  123     9    0.0     0.79496     3
  120  119  122  124     9    0.0     0.79496     3
  120  119  122  125     9    0.0     0.79496     3
  121  119  122  123     9    0.0     0.79496     3
  121  119  122  124     9    0.0     0.79496     3
  121  119  122  125     9    0.0     0.79496     3
  119  122  125  126     9    0.0     0.79496     3
  119  122  125  127     9    0.0     0.79496     3
  119  122  125  128     9    0.0   0.0602934     2
  119  122  125  128     9  180.0   0.2036253     3
  119  122  125  128     9    0.0   0.5540505     4
  119  122  125  128     9    0.0   0.4020192     5
  123  122  125  126     9    0.0     0.79496     3
  123  122  125  127     9    0.0     0.79496     3
  123  122  125  128     9    0.0     0.79496     3
  124  122  125  126     9    0.0     0.79496     3
  124  122  125  127     9    0.0     0.79496     3
  124  122  125  128     9    0.0     0.79496     3
  122  125  128  129     9    0.0     0.79496     3
  122  125  128  130     9    0.0     0.79496     3
  122  125  128  131     9    0.0  -0.0835134     2
  122  125  128  131     9  180.0   0.2659461     3
  122  125  128  131     9    0.0  -0.3460375     4
  122  125  128  131     9    0.0   0.4006127     5
  126  125  128  129     9    0.0     0.79496     3
  126  125  128  130     9    0.0     0.79496     3
  126  125  128  131     9    0.0     0.79496     3
  127  125  128  129     9    0.0     0.79496     3
  127  125  128  130     9    0.0     0.79496     3
  127  125  128  131     9    0.0     0.79496     3
  125  128  131  132     9    0.0     0.66944     3
  125  128  131  133     9    0.0     0.66944     3
  125  128  131  134     9    0.0     0.66944     3
  129  128  131  132     9    0.0     0.66944     3
  129  128  131  133     9    0.0     0.66944     3
  129  128  131  134     9    0.0     0.66944     3
  130  128  131  132     9    0.0     0.66944     3
  130  128  131  133     9    0.0     0.66944     3
  130  128  131  134     9    0.0     0.66944     3

[ dihedrals ]
; ai  aj  ak  al  func  xi0    kxi
  31  30  33  32     2  0.0  836.8
  40  39  42  41     2  0.0  836.8

[ moleculetype ]
; name  nrexcl
   SOL       2

[ atoms ]
; nr  type  resnr  residue  atom  cgnr     charge     mass
   1   OW4      1    water    OW     1        0.0  15.9994
   2   HW4      1    water   HW1     1   0.552481   1.0079
   3   HW4      1    water   HW2     1   0.552481   1.0079
   4    IW      1    water    IW     1  -1.104962      0.0

[ settles ]
; ai  func       doh       dhh
   1     1  0.095541  0.153079

[ exclusions ]
; ai  aj  ...
   1   2    3  4
   2   1    3  4
   3   1    2  4
   4   1    2  3

[ virtual_sites3 ]
; ai  aj  ak  al  func    a         b
   4   1   2   3     1  vsa  0.128187

[ system ]
POPC_water sj ions. Tweaking the LJ-parametrs of O headgroups

[ molecules ]
; name  count
  POPC    128
   SOL   8881
